<?xml version="1.0" encoding="UTF-8"?>

<!-- generated on 3/27/2018 5:30:21 PM by SUMO gui Version 0.32.0
<?xml version="1.0" encoding="UTF-8"?>

<configuration xmlns:xsi="http://www.w3.org/2001/XMLSchema-instance" xsi:noNamespaceSchemaLocation="http://sumo.dlr.de/xsd/sumoConfiguration.xsd">

    <input>
        <net-file value="map1.net.xml"/>
        <route-files value="router.rou.xml"/>
        <additional-files value="map_edg.xml"/>
    </input>

    <time>
        <begin value="0"/>
        <end value="500"/>
        <step-length value="0.9"/>
    </time>

    <traci_server>
        <remote-port value="52068"/>
    </traci_server>

    <gui_only>
        <tracker-interval value="0.9"/>
    </gui_only>

</configuration>
-->

<detector xmlns:xsi="http://www.w3.org/2001/XMLSchema-instance" xsi:noNamespaceSchemaLocation="http://sumo.dlr.de/xsd/det_e2_file.xsd">
</detector>
begin="0.00" end="100.80" id="e2Detector_-10_0_12" sampledSeconds="86.71" nVehEntered="6" nVehLeft="5" nVehSeen="6" meanSpeed="1.78" meanTimeLoss="12.60" meanOccupancy="6.43" maxOccupancy="24.74" meanMaxJamLengthInVehicles="0.64" meanMaxJamLengthInMeters="3.63" maxJamLengthInVehicles="2" maxJamLengthInMeters="12.51" jamLengthInVehiclesSum="72" jamLengthInMetersSum="406.17" meanHaltingDuration="33.30" maxHaltingDuration="37.80" haltingDurationSum="66.60" meanIntervalHaltingDuration="33.30" maxIntervalHaltingDuration="37.80" intervalHaltingDurationSum="66.60" startedHalts="2.00" meanVehicleNumber="0.89" maxVehicleNumber="3" />
   <interval begin="100.80" end="201.60" id="e2Detector_-10_0_12" sampledSeconds="20.42" nVehEntered="6" nVehLeft="8" nVehSeen="7" meanSpeed="11.39" meanTimeLoss="0.52" meanOccupancy="1.73" maxOccupancy="20.00" meanMaxJamLengthInVehicles="0.00" meanMaxJamLengthInMeters="0.00" maxJamLengthInVehicles="0" maxJamLengthInMeters="0.00" jamLengthInVehiclesSum="0" jamLengthInMetersSum="0.00" meanHaltingDuration="0.00" maxHaltingDuration="0.00" haltingDurationSum="0.00" meanIntervalHaltingDuration="0.00" maxIntervalHaltingDuration="0.00" intervalHaltingDurationSum="0.00" startedHalts="0.00" meanVehicleNumber="0.25" maxVehicleNumber="2" />
   <interval begin="201.60" end="302.40" id="e2Detector_-10_0_12" sampledSeconds="59.33" nVehEntered="7" nVehLeft="9" nVehSeen="6" meanSpeed="4.66" meanTimeLoss="6.57" meanOccupancy="4.11" maxOccupancy="20.00" meanMaxJamLengthInVehicles="0.28" meanMaxJamLengthInMeters="0.68" maxJamLengthInVehicles="1" maxJamLengthInMeters="5.00" jamLengthInVehiclesSum="31" jamLengthInMetersSum="76.13" meanHaltingDuration="14.85" maxHaltingDuration="27.90" haltingDurationSum="29.70" meanIntervalHaltingDuration="14.85" maxIntervalHaltingDuration="27.90" intervalHaltingDurationSum="29.70" startedHalts="2.00" meanVehicleNumber="0.63" maxVehicleNumber="3" />
   <interval begin="302.40" end="403.20" id="e2Detector_-10_0_12" sampledSeconds="49.89" nVehEntered="6" nVehLeft="9" nVehSeen="3" meanSpeed="3.30" meanTimeLoss="12.68" meanOccupancy="3.44" maxOccupancy="20.00" meanMaxJamLengthInVehicles="0.21" meanMaxJamLengthInMeters="0.49" maxJamLengthInVehicles="1" maxJamLengthInMeters="2.37" jamLengthInVehiclesSum="23" jamLengthInMetersSum="54.54" meanHaltingDuration="7.80" maxHaltingDuration="20.70" haltingDurationSum="23.40" meanIntervalHaltingDuration="7.80" maxIntervalHaltingDuration="20.70" intervalHaltingDurationSum="23.40" startedHalts="3.00" meanVehicleNumber="0.54" maxVehicleNumber="3" />
   <interval begin="403.20" end="450.00" id="e2Detector_-10_0_12" sampledSeconds="98.03" nVehEntered="3" nVehLeft="1" nVehSeen="-3" meanSpeed="1.09" meanTimeLoss="-30.11" meanOccupancy="15.83" maxOccupancy="24.74" meanMaxJamLengthInVehicles="1.79" meanMaxJamLengthInMeters="10.21" maxJamLengthInVehicles="3" maxJamLengthInMeters="20.00" jamLengthInVehiclesSum="93" jamLengthInMetersSum="530.77" meanHaltingDuration="29.10" maxHaltingDuration="48.60" haltingDurationSum="87.30" meanIntervalHaltingDuration="28.50" maxIntervalHaltingDuration="46.80" intervalHaltingDurationSum="85.50" startedHalts="2.00" meanVehicleNumber="2.12" maxVehicleNumber="3" />
</detector>
