<?xml version="1.0" encoding="UTF-8"?>

<!-- generated on 3/27/2018 5:30:21 PM by SUMO gui Version 0.32.0
<?xml version="1.0" encoding="UTF-8"?>

<configuration xmlns:xsi="http://www.w3.org/2001/XMLSchema-instance" xsi:noNamespaceSchemaLocation="http://sumo.dlr.de/xsd/sumoConfiguration.xsd">

    <input>
        <net-file value="map1.net.xml"/>
        <route-files value="router.rou.xml"/>
        <additional-files value="map_edg.xml"/>
    </input>

    <time>
        <begin value="0"/>
        <end value="500"/>
        <step-length value="0.9"/>
    </time>

    <traci_server>
        <remote-port value="52068"/>
    </traci_server>

    <gui_only>
        <tracker-interval value="0.9"/>
    </gui_only>

</configuration>
-->

<detector xmlns:xsi="http://www.w3.org/2001/XMLSchema-instance" xsi:noNamespaceSchemaLocation="http://sumo.dlr.de/xsd/det_e2_file.xsd">
</detector>
begin="0.00" end="100.80" id="e2Detector_-15_0_9" sampledSeconds="15.49" nVehEntered="4" nVehLeft="4" nVehSeen="4" meanSpeed="7.88" meanTimeLoss="1.68" meanOccupancy="1.68" maxOccupancy="15.23" meanMaxJamLengthInVehicles="0.02" meanMaxJamLengthInMeters="0.09" maxJamLengthInVehicles="1" maxJamLengthInMeters="5.00" jamLengthInVehiclesSum="2" jamLengthInMetersSum="10.00" meanHaltingDuration="2.70" maxHaltingDuration="2.70" haltingDurationSum="2.70" meanIntervalHaltingDuration="2.70" maxIntervalHaltingDuration="2.70" intervalHaltingDurationSum="2.70" startedHalts="1.00" meanVehicleNumber="0.18" maxVehicleNumber="2" />
   <interval begin="100.80" end="201.60" id="e2Detector_-15_0_9" sampledSeconds="292.60" nVehEntered="10" nVehLeft="12" nVehSeen="10" meanSpeed="1.84" meanTimeLoss="25.38" meanOccupancy="32.46" maxOccupancy="68.57" meanMaxJamLengthInVehicles="2.13" meanMaxJamLengthInMeters="14.45" maxJamLengthInVehicles="6" maxJamLengthInMeters="43.75" jamLengthInVehiclesSum="239" jamLengthInMetersSum="1618.25" meanHaltingDuration="27.79" maxHaltingDuration="32.40" haltingDurationSum="222.30" meanIntervalHaltingDuration="27.79" maxIntervalHaltingDuration="32.40" intervalHaltingDurationSum="222.30" startedHalts="8.00" meanVehicleNumber="3.00" maxVehicleNumber="6" />
   <interval begin="201.60" end="302.40" id="e2Detector_-15_0_9" sampledSeconds="179.95" nVehEntered="7" nVehLeft="5" nVehSeen="5" meanSpeed="1.33" meanTimeLoss="32.53" meanOccupancy="20.32" maxOccupancy="57.14" meanMaxJamLengthInVehicles="1.45" meanMaxJamLengthInMeters="9.24" maxJamLengthInVehicles="5" maxJamLengthInMeters="35.01" jamLengthInVehiclesSum="162" jamLengthInMetersSum="1035.29" meanHaltingDuration="28.16" maxHaltingDuration="52.20" haltingDurationSum="197.10" meanIntervalHaltingDuration="21.47" maxIntervalHaltingDuration="40.50" intervalHaltingDurationSum="150.30" startedHalts="5.00" meanVehicleNumber="1.85" maxVehicleNumber="5" />
   <interval begin="302.40" end="403.20" id="e2Detector_-15_0_9" sampledSeconds="259.00" nVehEntered="6" nVehLeft="9" nVehSeen="6" meanSpeed="0.96" meanTimeLoss="40.18" meanOccupancy="29.00" maxOccupancy="68.57" meanMaxJamLengthInVehicles="2.10" meanMaxJamLengthInMeters="14.63" maxJamLengthInVehicles="6" maxJamLengthInMeters="42.51" jamLengthInVehiclesSum="235" jamLengthInMetersSum="1639.00" meanHaltingDuration="28.96" maxHaltingDuration="53.10" haltingDurationSum="318.60" meanIntervalHaltingDuration="19.72" maxIntervalHaltingDuration="28.80" intervalHaltingDurationSum="216.90" startedHalts="6.00" meanVehicleNumber="2.62" maxVehicleNumber="6" />
   <interval begin="403.20" end="450.00" id="e2Detector_-15_0_9" sampledSeconds="87.27" nVehEntered="6" nVehLeft="13" nVehSeen="3" meanSpeed="5.05" meanTimeLoss="18.50" meanOccupancy="19.42" maxOccupancy="68.57" meanMaxJamLengthInVehicles="0.67" meanMaxJamLengthInMeters="4.72" maxJamLengthInVehicles="6" maxJamLengthInMeters="42.51" jamLengthInVehiclesSum="35" jamLengthInMetersSum="245.63" meanHaltingDuration="28.95" maxHaltingDuration="30.60" haltingDurationSum="173.70" meanIntervalHaltingDuration="5.25" maxIntervalHaltingDuration="8.10" intervalHaltingDurationSum="31.50" startedHalts="0.00" meanVehicleNumber="2.08" maxVehicleNumber="6" />
</detector>
