<?xml version="1.0" encoding="UTF-8"?>

<!-- generated on 3/27/2018 5:30:21 PM by SUMO gui Version 0.32.0
<?xml version="1.0" encoding="UTF-8"?>

<configuration xmlns:xsi="http://www.w3.org/2001/XMLSchema-instance" xsi:noNamespaceSchemaLocation="http://sumo.dlr.de/xsd/sumoConfiguration.xsd">

    <input>
        <net-file value="map1.net.xml"/>
        <route-files value="router.rou.xml"/>
        <additional-files value="map_edg.xml"/>
    </input>

    <time>
        <begin value="0"/>
        <end value="500"/>
        <step-length value="0.9"/>
    </time>

    <traci_server>
        <remote-port value="52068"/>
    </traci_server>

    <gui_only>
        <tracker-interval value="0.9"/>
    </gui_only>

</configuration>
-->

<detector xmlns:xsi="http://www.w3.org/2001/XMLSchema-instance" xsi:noNamespaceSchemaLocation="http://sumo.dlr.de/xsd/det_e2_file.xsd">
</detector>
begin="0.00" end="100.80" id="e2Detector_12_1_7" sampledSeconds="0.00" nVehEntered="0" nVehLeft="0" nVehSeen="0" meanSpeed="-1.00" meanTimeLoss="-1.00" meanOccupancy="0.00" maxOccupancy="0.00" meanMaxJamLengthInVehicles="0.00" meanMaxJamLengthInMeters="0.00" maxJamLengthInVehicles="0" maxJamLengthInMeters="0.00" jamLengthInVehiclesSum="0" jamLengthInMetersSum="0.00" meanHaltingDuration="0.00" maxHaltingDuration="0.00" haltingDurationSum="0.00" meanIntervalHaltingDuration="0.00" maxIntervalHaltingDuration="0.00" intervalHaltingDurationSum="0.00" startedHalts="0.00" meanVehicleNumber="0.00" maxVehicleNumber="0" />
   <interval begin="100.80" end="201.60" id="e2Detector_12_1_7" sampledSeconds="154.08" nVehEntered="12" nVehLeft="15" nVehSeen="12" meanSpeed="4.09" meanTimeLoss="9.06" meanOccupancy="13.51" maxOccupancy="35.34" meanMaxJamLengthInVehicles="0.87" meanMaxJamLengthInMeters="5.82" maxJamLengthInVehicles="4" maxJamLengthInMeters="27.52" jamLengthInVehiclesSum="97" jamLengthInMetersSum="651.29" meanHaltingDuration="22.73" maxHaltingDuration="24.30" haltingDurationSum="90.90" meanIntervalHaltingDuration="22.73" maxIntervalHaltingDuration="24.30" intervalHaltingDurationSum="90.90" startedHalts="4.00" meanVehicleNumber="1.63" maxVehicleNumber="4" />
   <interval begin="201.60" end="302.40" id="e2Detector_12_1_7" sampledSeconds="179.55" nVehEntered="9" nVehLeft="10" nVehSeen="6" meanSpeed="2.62" meanTimeLoss="24.28" meanOccupancy="14.97" maxOccupancy="30.79" meanMaxJamLengthInVehicles="1.24" meanMaxJamLengthInMeters="7.79" maxJamLengthInVehicles="3" maxJamLengthInMeters="20.02" jamLengthInVehiclesSum="139" jamLengthInMetersSum="872.45" meanHaltingDuration="32.17" maxHaltingDuration="46.80" haltingDurationSum="128.70" meanIntervalHaltingDuration="32.17" maxIntervalHaltingDuration="46.80" intervalHaltingDurationSum="128.70" startedHalts="4.00" meanVehicleNumber="1.88" maxVehicleNumber="4" />
   <interval begin="302.40" end="403.20" id="e2Detector_12_1_7" sampledSeconds="165.16" nVehEntered="8" nVehLeft="9" nVehSeen="4" meanSpeed="2.47" meanTimeLoss="33.95" meanOccupancy="13.61" maxOccupancy="26.24" meanMaxJamLengthInVehicles="1.17" meanMaxJamLengthInMeters="7.14" maxJamLengthInVehicles="3" maxJamLengthInMeters="20.01" jamLengthInVehiclesSum="131" jamLengthInMetersSum="799.52" meanHaltingDuration="25.02" maxHaltingDuration="37.80" haltingDurationSum="125.10" meanIntervalHaltingDuration="24.30" maxIntervalHaltingDuration="37.80" intervalHaltingDurationSum="121.50" startedHalts="4.00" meanVehicleNumber="1.71" maxVehicleNumber="3" />
   <interval begin="403.20" end="450.00" id="e2Detector_12_1_7" sampledSeconds="197.42" nVehEntered="4" nVehLeft="0" nVehSeen="-1" meanSpeed="0.54" meanTimeLoss="-189.80" meanOccupancy="37.01" maxOccupancy="54.69" meanMaxJamLengthInVehicles="3.83" meanMaxJamLengthInMeters="26.16" maxJamLengthInVehicles="6" maxJamLengthInMeters="42.61" jamLengthInVehiclesSum="199" jamLengthInMetersSum="1360.22" meanHaltingDuration="31.95" maxHaltingDuration="54.90" haltingDurationSum="191.70" meanIntervalHaltingDuration="30.60" maxIntervalHaltingDuration="46.80" intervalHaltingDurationSum="183.60" startedHalts="5.00" meanVehicleNumber="4.25" maxVehicleNumber="6" />
</detector>
