<?xml version="1.0" encoding="UTF-8"?>

<!-- generated on 3/27/2018 5:30:21 PM by SUMO gui Version 0.32.0
<?xml version="1.0" encoding="UTF-8"?>

<configuration xmlns:xsi="http://www.w3.org/2001/XMLSchema-instance" xsi:noNamespaceSchemaLocation="http://sumo.dlr.de/xsd/sumoConfiguration.xsd">

    <input>
        <net-file value="map1.net.xml"/>
        <route-files value="router.rou.xml"/>
        <additional-files value="map_edg.xml"/>
    </input>

    <time>
        <begin value="0"/>
        <end value="500"/>
        <step-length value="0.9"/>
    </time>

    <traci_server>
        <remote-port value="52068"/>
    </traci_server>

    <gui_only>
        <tracker-interval value="0.9"/>
    </gui_only>

</configuration>
-->

<detector xmlns:xsi="http://www.w3.org/2001/XMLSchema-instance" xsi:noNamespaceSchemaLocation="http://sumo.dlr.de/xsd/det_e2_file.xsd">
</detector>
begin="0.00" end="100.80" id="e2Detector_5_0_6" sampledSeconds="102.76" nVehEntered="4" nVehLeft="4" nVehSeen="4" meanSpeed="2.03" meanTimeLoss="21.94" meanOccupancy="7.58" maxOccupancy="23.01" meanMaxJamLengthInVehicles="0.75" meanMaxJamLengthInMeters="4.46" maxJamLengthInVehicles="3" maxJamLengthInMeters="20.00" jamLengthInVehiclesSum="84" jamLengthInMetersSum="499.33" meanHaltingDuration="26.10" maxHaltingDuration="33.30" haltingDurationSum="78.30" meanIntervalHaltingDuration="26.10" maxIntervalHaltingDuration="33.30" intervalHaltingDurationSum="78.30" startedHalts="3.00" meanVehicleNumber="1.05" maxVehicleNumber="3" />
   <interval begin="100.80" end="201.60" id="e2Detector_5_0_6" sampledSeconds="421.42" nVehEntered="16" nVehLeft="14" nVehSeen="16" meanSpeed="1.83" meanTimeLoss="22.87" meanOccupancy="39.24" maxOccupancy="65.55" meanMaxJamLengthInVehicles="3.16" meanMaxJamLengthInMeters="22.32" maxJamLengthInVehicles="7" maxJamLengthInMeters="50.14" jamLengthInVehiclesSum="354" jamLengthInMetersSum="2499.75" meanHaltingDuration="46.41" maxHaltingDuration="49.50" haltingDurationSum="324.90" meanIntervalHaltingDuration="46.41" maxIntervalHaltingDuration="49.50" intervalHaltingDurationSum="324.90" startedHalts="7.00" meanVehicleNumber="4.30" maxVehicleNumber="7" />
   <interval begin="201.60" end="302.40" id="e2Detector_5_0_6" sampledSeconds="321.43" nVehEntered="11" nVehLeft="12" nVehSeen="13" meanSpeed="1.91" meanTimeLoss="21.33" meanOccupancy="28.88" maxOccupancy="65.55" meanMaxJamLengthInVehicles="2.32" meanMaxJamLengthInMeters="16.05" maxJamLengthInVehicles="7" maxJamLengthInMeters="50.09" jamLengthInVehiclesSum="260" jamLengthInMetersSum="1797.99" meanHaltingDuration="34.33" maxHaltingDuration="47.70" haltingDurationSum="240.30" meanIntervalHaltingDuration="34.33" maxIntervalHaltingDuration="47.70" intervalHaltingDurationSum="240.30" startedHalts="7.00" meanVehicleNumber="3.29" maxVehicleNumber="7" />
   <interval begin="302.40" end="403.20" id="e2Detector_5_0_6" sampledSeconds="459.75" nVehEntered="26" nVehLeft="22" nVehSeen="27" meanSpeed="2.76" meanTimeLoss="13.65" meanOccupancy="42.83" maxOccupancy="65.55" meanMaxJamLengthInVehicles="3.01" meanMaxJamLengthInMeters="21.09" maxJamLengthInVehicles="7" maxJamLengthInMeters="50.03" jamLengthInVehiclesSum="337" jamLengthInMetersSum="2361.53" meanHaltingDuration="31.23" maxHaltingDuration="48.60" haltingDurationSum="312.30" meanIntervalHaltingDuration="31.23" maxIntervalHaltingDuration="48.60" intervalHaltingDurationSum="312.30" startedHalts="10.00" meanVehicleNumber="4.83" maxVehicleNumber="7" />
   <interval begin="403.20" end="450.00" id="e2Detector_5_0_6" sampledSeconds="321.12" nVehEntered="2" nVehLeft="0" nVehSeen="7" meanSpeed="0.15" meanTimeLoss="45.38" meanOccupancy="64.03" maxOccupancy="65.55" meanMaxJamLengthInVehicles="6.52" meanMaxJamLengthInMeters="46.41" maxJamLengthInVehicles="7" maxJamLengthInMeters="50.08" jamLengthInVehiclesSum="339" jamLengthInMetersSum="2413.23" meanHaltingDuration="44.61" maxHaltingDuration="48.60" haltingDurationSum="312.30" meanIntervalHaltingDuration="44.23" maxIntervalHaltingDuration="46.80" intervalHaltingDurationSum="309.60" startedHalts="5.00" meanVehicleNumber="6.88" maxVehicleNumber="7" />
</detector>
