<?xml version="1.0" encoding="UTF-8"?>

<!-- generated on 3/27/2018 5:30:21 PM by SUMO gui Version 0.32.0
<?xml version="1.0" encoding="UTF-8"?>

<configuration xmlns:xsi="http://www.w3.org/2001/XMLSchema-instance" xsi:noNamespaceSchemaLocation="http://sumo.dlr.de/xsd/sumoConfiguration.xsd">

    <input>
        <net-file value="map1.net.xml"/>
        <route-files value="router.rou.xml"/>
        <additional-files value="map_edg.xml"/>
    </input>

    <time>
        <begin value="0"/>
        <end value="500"/>
        <step-length value="0.9"/>
    </time>

    <traci_server>
        <remote-port value="52068"/>
    </traci_server>

    <gui_only>
        <tracker-interval value="0.9"/>
    </gui_only>

</configuration>
-->

<detector xmlns:xsi="http://www.w3.org/2001/XMLSchema-instance" xsi:noNamespaceSchemaLocation="http://sumo.dlr.de/xsd/det_e2_file.xsd">
</detector>
begin="0.00" end="100.80" id="e2Detector_18_1_8" sampledSeconds="1.78" nVehEntered="1" nVehLeft="1" nVehSeen="1" meanSpeed="13.46" meanTimeLoss="0.06" meanOccupancy="0.09" maxOccupancy="10.00" meanMaxJamLengthInVehicles="0.00" meanMaxJamLengthInMeters="0.00" maxJamLengthInVehicles="0" maxJamLengthInMeters="0.00" jamLengthInVehiclesSum="0" jamLengthInMetersSum="0.00" meanHaltingDuration="0.00" maxHaltingDuration="0.00" haltingDurationSum="0.00" meanIntervalHaltingDuration="0.00" maxIntervalHaltingDuration="0.00" intervalHaltingDurationSum="0.00" startedHalts="0.00" meanVehicleNumber="0.02" maxVehicleNumber="1" />
   <interval begin="100.80" end="201.60" id="e2Detector_18_1_8" sampledSeconds="0.00" nVehEntered="0" nVehLeft="0" nVehSeen="0" meanSpeed="-1.00" meanTimeLoss="-1.00" meanOccupancy="0.00" maxOccupancy="0.00" meanMaxJamLengthInVehicles="0.00" meanMaxJamLengthInMeters="0.00" maxJamLengthInVehicles="0" maxJamLengthInMeters="0.00" jamLengthInVehiclesSum="0" jamLengthInMetersSum="0.00" meanHaltingDuration="0.00" maxHaltingDuration="0.00" haltingDurationSum="0.00" meanIntervalHaltingDuration="0.00" maxIntervalHaltingDuration="0.00" intervalHaltingDurationSum="0.00" startedHalts="0.00" meanVehicleNumber="0.00" maxVehicleNumber="0" />
   <interval begin="201.60" end="302.40" id="e2Detector_18_1_8" sampledSeconds="12.55" nVehEntered="3" nVehLeft="3" nVehSeen="3" meanSpeed="13.15" meanTimeLoss="0.22" meanOccupancy="1.22" maxOccupancy="10.00" meanMaxJamLengthInVehicles="0.00" meanMaxJamLengthInMeters="0.00" maxJamLengthInVehicles="0" maxJamLengthInMeters="0.00" jamLengthInVehiclesSum="0" jamLengthInMetersSum="0.00" meanHaltingDuration="0.00" maxHaltingDuration="0.00" haltingDurationSum="0.00" meanIntervalHaltingDuration="0.00" maxIntervalHaltingDuration="0.00" intervalHaltingDurationSum="0.00" startedHalts="0.00" meanVehicleNumber="0.16" maxVehicleNumber="1" />
   <interval begin="302.40" end="403.20" id="e2Detector_18_1_8" sampledSeconds="48.20" nVehEntered="3" nVehLeft="3" nVehSeen="3" meanSpeed="1.81" meanTimeLoss="13.97" meanOccupancy="3.76" maxOccupancy="24.82" meanMaxJamLengthInVehicles="0.28" meanMaxJamLengthInMeters="1.65" maxJamLengthInVehicles="2" maxJamLengthInMeters="12.64" jamLengthInVehiclesSum="31" jamLengthInMetersSum="185.05" meanHaltingDuration="10.20" maxHaltingDuration="14.40" haltingDurationSum="30.60" meanIntervalHaltingDuration="10.20" maxIntervalHaltingDuration="14.40" intervalHaltingDurationSum="30.60" startedHalts="3.00" meanVehicleNumber="0.49" maxVehicleNumber="3" />
   <interval begin="403.20" end="450.00" id="e2Detector_18_1_8" sampledSeconds="32.43" nVehEntered="2" nVehLeft="0" nVehSeen="2" meanSpeed="2.16" meanTimeLoss="13.69" meanOccupancy="5.45" maxOccupancy="20.00" meanMaxJamLengthInVehicles="0.48" meanMaxJamLengthInMeters="2.93" maxJamLengthInVehicles="2" maxJamLengthInMeters="12.56" jamLengthInVehiclesSum="25" jamLengthInMetersSum="152.52" meanHaltingDuration="12.15" maxHaltingDuration="12.60" haltingDurationSum="24.30" meanIntervalHaltingDuration="12.15" maxIntervalHaltingDuration="12.60" intervalHaltingDurationSum="24.30" startedHalts="2.00" meanVehicleNumber="0.71" maxVehicleNumber="2" />
</detector>
