<?xml version="1.0" encoding="UTF-8"?>

<!-- generated on 3/27/2018 5:30:21 PM by SUMO gui Version 0.32.0
<?xml version="1.0" encoding="UTF-8"?>

<configuration xmlns:xsi="http://www.w3.org/2001/XMLSchema-instance" xsi:noNamespaceSchemaLocation="http://sumo.dlr.de/xsd/sumoConfiguration.xsd">

    <input>
        <net-file value="map1.net.xml"/>
        <route-files value="router.rou.xml"/>
        <additional-files value="map_edg.xml"/>
    </input>

    <time>
        <begin value="0"/>
        <end value="500"/>
        <step-length value="0.9"/>
    </time>

    <traci_server>
        <remote-port value="52068"/>
    </traci_server>

    <gui_only>
        <tracker-interval value="0.9"/>
    </gui_only>

</configuration>
-->

<detector xmlns:xsi="http://www.w3.org/2001/XMLSchema-instance" xsi:noNamespaceSchemaLocation="http://sumo.dlr.de/xsd/det_e2_file.xsd">
</detector>
begin="0.00" end="100.80" id="e2Detector_-18_0_11" sampledSeconds="16.57" nVehEntered="4" nVehLeft="6" nVehSeen="4" meanSpeed="13.28" meanTimeLoss="0.18" meanOccupancy="1.49" maxOccupancy="10.00" meanMaxJamLengthInVehicles="0.00" meanMaxJamLengthInMeters="0.00" maxJamLengthInVehicles="0" maxJamLengthInMeters="0.00" jamLengthInVehiclesSum="0" jamLengthInMetersSum="0.00" meanHaltingDuration="0.00" maxHaltingDuration="0.00" haltingDurationSum="0.00" meanIntervalHaltingDuration="0.00" maxIntervalHaltingDuration="0.00" intervalHaltingDurationSum="0.00" startedHalts="0.00" meanVehicleNumber="0.20" maxVehicleNumber="1" />
   <interval begin="100.80" end="201.60" id="e2Detector_-18_0_11" sampledSeconds="8.22" nVehEntered="2" nVehLeft="4" nVehSeen="0" meanSpeed="13.38" meanTimeLoss="-1.00" meanOccupancy="0.71" maxOccupancy="10.00" meanMaxJamLengthInVehicles="0.00" meanMaxJamLengthInMeters="0.00" maxJamLengthInVehicles="0" maxJamLengthInMeters="0.00" jamLengthInVehiclesSum="0" jamLengthInMetersSum="0.00" meanHaltingDuration="0.00" maxHaltingDuration="0.00" haltingDurationSum="0.00" meanIntervalHaltingDuration="0.00" maxIntervalHaltingDuration="0.00" intervalHaltingDurationSum="0.00" startedHalts="0.00" meanVehicleNumber="0.10" maxVehicleNumber="1" />
   <interval begin="201.60" end="302.40" id="e2Detector_-18_0_11" sampledSeconds="7.88" nVehEntered="2" nVehLeft="3" nVehSeen="-2" meanSpeed="13.44" meanTimeLoss="-0.13" meanOccupancy="0.69" maxOccupancy="10.00" meanMaxJamLengthInVehicles="0.00" meanMaxJamLengthInMeters="0.00" maxJamLengthInVehicles="0" maxJamLengthInMeters="0.00" jamLengthInVehiclesSum="0" jamLengthInMetersSum="0.00" meanHaltingDuration="0.00" maxHaltingDuration="0.00" haltingDurationSum="0.00" meanIntervalHaltingDuration="0.00" maxIntervalHaltingDuration="0.00" intervalHaltingDurationSum="0.00" startedHalts="0.00" meanVehicleNumber="0.10" maxVehicleNumber="1" />
   <interval begin="302.40" end="403.20" id="e2Detector_-18_0_11" sampledSeconds="14.58" nVehEntered="4" nVehLeft="4" nVehSeen="-1" meanSpeed="13.32" meanTimeLoss="-0.60" meanOccupancy="1.33" maxOccupancy="10.00" meanMaxJamLengthInVehicles="0.00" meanMaxJamLengthInMeters="0.00" maxJamLengthInVehicles="0" maxJamLengthInMeters="0.00" jamLengthInVehiclesSum="0" jamLengthInMetersSum="0.00" meanHaltingDuration="0.00" maxHaltingDuration="0.00" haltingDurationSum="0.00" meanIntervalHaltingDuration="0.00" maxIntervalHaltingDuration="0.00" intervalHaltingDurationSum="0.00" startedHalts="0.00" meanVehicleNumber="0.19" maxVehicleNumber="1" />
   <interval begin="403.20" end="450.00" id="e2Detector_-18_0_11" sampledSeconds="8.22" nVehEntered="2" nVehLeft="2" nVehSeen="-3" meanSpeed="13.39" meanTimeLoss="-0.10" meanOccupancy="1.60" maxOccupancy="20.00" meanMaxJamLengthInVehicles="0.00" meanMaxJamLengthInMeters="0.00" maxJamLengthInVehicles="0" maxJamLengthInMeters="0.00" jamLengthInVehiclesSum="0" jamLengthInMetersSum="0.00" meanHaltingDuration="0.00" maxHaltingDuration="0.00" haltingDurationSum="0.00" meanIntervalHaltingDuration="0.00" maxIntervalHaltingDuration="0.00" intervalHaltingDurationSum="0.00" startedHalts="0.00" meanVehicleNumber="0.21" maxVehicleNumber="2" />
</detector>
