<?xml version="1.0" encoding="UTF-8"?>

<!-- generated on 3/27/2018 5:30:21 PM by SUMO gui Version 0.32.0
<?xml version="1.0" encoding="UTF-8"?>

<configuration xmlns:xsi="http://www.w3.org/2001/XMLSchema-instance" xsi:noNamespaceSchemaLocation="http://sumo.dlr.de/xsd/sumoConfiguration.xsd">

    <input>
        <net-file value="map1.net.xml"/>
        <route-files value="router.rou.xml"/>
        <additional-files value="map_edg.xml"/>
    </input>

    <time>
        <begin value="0"/>
        <end value="500"/>
        <step-length value="0.9"/>
    </time>

    <traci_server>
        <remote-port value="52068"/>
    </traci_server>

    <gui_only>
        <tracker-interval value="0.9"/>
    </gui_only>

</configuration>
-->

<detector xmlns:xsi="http://www.w3.org/2001/XMLSchema-instance" xsi:noNamespaceSchemaLocation="http://sumo.dlr.de/xsd/det_e2_file.xsd">
</detector>
begin="0.00" end="100.80" id="e2Detector_12_0_6" sampledSeconds="8.26" nVehEntered="2" nVehLeft="2" nVehSeen="2" meanSpeed="13.32" meanTimeLoss="0.17" meanOccupancy="0.77" maxOccupancy="10.00" meanMaxJamLengthInVehicles="0.00" meanMaxJamLengthInMeters="0.00" maxJamLengthInVehicles="0" maxJamLengthInMeters="0.00" jamLengthInVehiclesSum="0" jamLengthInMetersSum="0.00" meanHaltingDuration="0.00" maxHaltingDuration="0.00" haltingDurationSum="0.00" meanIntervalHaltingDuration="0.00" maxIntervalHaltingDuration="0.00" intervalHaltingDurationSum="0.00" startedHalts="0.00" meanVehicleNumber="0.11" maxVehicleNumber="1" />
   <interval begin="100.80" end="201.60" id="e2Detector_12_0_6" sampledSeconds="269.27" nVehEntered="11" nVehLeft="19" nVehSeen="11" meanSpeed="2.25" meanTimeLoss="20.52" meanOccupancy="23.44" maxOccupancy="65.34" meanMaxJamLengthInVehicles="1.86" meanMaxJamLengthInMeters="12.31" maxJamLengthInVehicles="6" maxJamLengthInMeters="42.59" jamLengthInVehiclesSum="208" jamLengthInMetersSum="1378.87" meanHaltingDuration="24.30" maxHaltingDuration="54.00" haltingDurationSum="194.40" meanIntervalHaltingDuration="24.30" maxIntervalHaltingDuration="54.00" intervalHaltingDurationSum="194.40" startedHalts="8.00" meanVehicleNumber="2.77" maxVehicleNumber="7" />
   <interval begin="201.60" end="302.40" id="e2Detector_12_0_6" sampledSeconds="209.97" nVehEntered="10" nVehLeft="13" nVehSeen="2" meanSpeed="2.61" meanTimeLoss="85.29" meanOccupancy="18.00" maxOccupancy="40.00" meanMaxJamLengthInVehicles="1.43" meanMaxJamLengthInMeters="9.38" maxJamLengthInVehicles="4" maxJamLengthInMeters="27.60" jamLengthInVehiclesSum="160" jamLengthInMetersSum="1050.89" meanHaltingDuration="36.90" maxHaltingDuration="48.60" haltingDurationSum="147.60" meanIntervalHaltingDuration="36.90" maxIntervalHaltingDuration="48.60" intervalHaltingDurationSum="147.60" startedHalts="4.00" meanVehicleNumber="2.14" maxVehicleNumber="5" />
   <interval begin="302.40" end="403.20" id="e2Detector_12_0_6" sampledSeconds="123.14" nVehEntered="11" nVehLeft="13" nVehSeen="0" meanSpeed="4.60" meanTimeLoss="-1.00" meanOccupancy="9.53" maxOccupancy="24.29" meanMaxJamLengthInVehicles="0.70" meanMaxJamLengthInMeters="3.42" maxJamLengthInVehicles="2" maxJamLengthInMeters="12.50" jamLengthInVehiclesSum="78" jamLengthInMetersSum="382.60" meanHaltingDuration="24.30" maxHaltingDuration="45.90" haltingDurationSum="72.90" meanIntervalHaltingDuration="24.30" maxIntervalHaltingDuration="45.90" intervalHaltingDurationSum="72.90" startedHalts="3.00" meanVehicleNumber="1.30" maxVehicleNumber="3" />
   <interval begin="403.20" end="450.00" id="e2Detector_12_0_6" sampledSeconds="129.90" nVehEntered="3" nVehLeft="3" nVehSeen="-10" meanSpeed="0.86" meanTimeLoss="-12.18" meanOccupancy="23.23" maxOccupancy="35.34" meanMaxJamLengthInVehicles="2.44" meanMaxJamLengthInMeters="15.24" maxJamLengthInVehicles="4" maxJamLengthInMeters="27.57" jamLengthInVehiclesSum="127" jamLengthInMetersSum="792.44" meanHaltingDuration="30.15" maxHaltingDuration="50.40" haltingDurationSum="120.60" meanIntervalHaltingDuration="29.25" maxIntervalHaltingDuration="46.80" intervalHaltingDurationSum="117.00" startedHalts="3.00" meanVehicleNumber="2.79" maxVehicleNumber="4" />
</detector>
