<?xml version="1.0" encoding="UTF-8"?>

<!-- generated on 3/27/2018 5:30:21 PM by SUMO gui Version 0.32.0
<?xml version="1.0" encoding="UTF-8"?>

<configuration xmlns:xsi="http://www.w3.org/2001/XMLSchema-instance" xsi:noNamespaceSchemaLocation="http://sumo.dlr.de/xsd/sumoConfiguration.xsd">

    <input>
        <net-file value="map1.net.xml"/>
        <route-files value="router.rou.xml"/>
        <additional-files value="map_edg.xml"/>
    </input>

    <time>
        <begin value="0"/>
        <end value="500"/>
        <step-length value="0.9"/>
    </time>

    <traci_server>
        <remote-port value="52068"/>
    </traci_server>

    <gui_only>
        <tracker-interval value="0.9"/>
    </gui_only>

</configuration>
-->

<detector xmlns:xsi="http://www.w3.org/2001/XMLSchema-instance" xsi:noNamespaceSchemaLocation="http://sumo.dlr.de/xsd/det_e2_file.xsd">
</detector>
begin="0.00" end="100.80" id="e2Detector_-2_1_6" sampledSeconds="0.00" nVehEntered="0" nVehLeft="0" nVehSeen="0" meanSpeed="-1.00" meanTimeLoss="-1.00" meanOccupancy="0.00" maxOccupancy="0.00" meanMaxJamLengthInVehicles="0.00" meanMaxJamLengthInMeters="0.00" maxJamLengthInVehicles="0" maxJamLengthInMeters="0.00" jamLengthInVehiclesSum="0" jamLengthInMetersSum="0.00" meanHaltingDuration="0.00" maxHaltingDuration="0.00" haltingDurationSum="0.00" meanIntervalHaltingDuration="0.00" maxIntervalHaltingDuration="0.00" intervalHaltingDurationSum="0.00" startedHalts="0.00" meanVehicleNumber="0.00" maxVehicleNumber="0" />
   <interval begin="100.80" end="201.60" id="e2Detector_-2_1_6" sampledSeconds="141.86" nVehEntered="7" nVehLeft="6" nVehSeen="7" meanSpeed="2.43" meanTimeLoss="16.72" meanOccupancy="13.54" maxOccupancy="30.00" meanMaxJamLengthInVehicles="0.92" meanMaxJamLengthInMeters="5.75" maxJamLengthInVehicles="3" maxJamLengthInMeters="20.05" jamLengthInVehiclesSum="103" jamLengthInMetersSum="643.89" meanHaltingDuration="19.08" maxHaltingDuration="35.10" haltingDurationSum="95.40" meanIntervalHaltingDuration="19.08" maxIntervalHaltingDuration="35.10" intervalHaltingDurationSum="95.40" startedHalts="7.00" meanVehicleNumber="1.46" maxVehicleNumber="3" />
   <interval begin="201.60" end="302.40" id="e2Detector_-2_1_6" sampledSeconds="240.50" nVehEntered="11" nVehLeft="9" nVehSeen="12" meanSpeed="1.91" meanTimeLoss="17.29" meanOccupancy="23.02" maxOccupancy="50.00" meanMaxJamLengthInVehicles="1.68" meanMaxJamLengthInMeters="11.08" maxJamLengthInVehicles="4" maxJamLengthInMeters="27.51" jamLengthInVehiclesSum="188" jamLengthInMetersSum="1241.02" meanHaltingDuration="16.28" maxHaltingDuration="33.30" haltingDurationSum="179.10" meanIntervalHaltingDuration="16.28" maxIntervalHaltingDuration="33.30" intervalHaltingDurationSum="179.10" startedHalts="12.00" meanVehicleNumber="2.46" maxVehicleNumber="5" />
   <interval begin="302.40" end="403.20" id="e2Detector_-2_1_6" sampledSeconds="207.07" nVehEntered="13" nVehLeft="14" nVehSeen="16" meanSpeed="2.99" meanTimeLoss="10.15" meanOccupancy="19.69" maxOccupancy="40.00" meanMaxJamLengthInVehicles="1.19" meanMaxJamLengthInMeters="7.57" maxJamLengthInVehicles="3" maxJamLengthInMeters="20.21" jamLengthInVehiclesSum="133" jamLengthInMetersSum="847.48" meanHaltingDuration="15.30" maxHaltingDuration="35.10" haltingDurationSum="153.00" meanIntervalHaltingDuration="12.42" maxIntervalHaltingDuration="35.10" intervalHaltingDurationSum="124.20" startedHalts="9.00" meanVehicleNumber="2.15" maxVehicleNumber="4" />
   <interval begin="403.20" end="450.00" id="e2Detector_-2_1_6" sampledSeconds="49.36" nVehEntered="3" nVehLeft="3" nVehSeen="5" meanSpeed="3.18" meanTimeLoss="7.61" meanOccupancy="10.58" maxOccupancy="30.00" meanMaxJamLengthInVehicles="0.69" meanMaxJamLengthInMeters="4.28" maxJamLengthInVehicles="2" maxJamLengthInMeters="12.53" jamLengthInVehiclesSum="36" jamLengthInMetersSum="222.55" meanHaltingDuration="17.10" maxHaltingDuration="18.00" haltingDurationSum="34.20" meanIntervalHaltingDuration="17.10" maxIntervalHaltingDuration="18.00" intervalHaltingDurationSum="34.20" startedHalts="2.00" meanVehicleNumber="1.10" maxVehicleNumber="3" />
</detector>
