<?xml version="1.0" encoding="UTF-8"?>

<!-- generated on 3/27/2018 5:30:21 PM by SUMO gui Version 0.32.0
<?xml version="1.0" encoding="UTF-8"?>

<configuration xmlns:xsi="http://www.w3.org/2001/XMLSchema-instance" xsi:noNamespaceSchemaLocation="http://sumo.dlr.de/xsd/sumoConfiguration.xsd">

    <input>
        <net-file value="map1.net.xml"/>
        <route-files value="router.rou.xml"/>
        <additional-files value="map_edg.xml"/>
    </input>

    <time>
        <begin value="0"/>
        <end value="500"/>
        <step-length value="0.9"/>
    </time>

    <traci_server>
        <remote-port value="52068"/>
    </traci_server>

    <gui_only>
        <tracker-interval value="0.9"/>
    </gui_only>

</configuration>
-->

<detector xmlns:xsi="http://www.w3.org/2001/XMLSchema-instance" xsi:noNamespaceSchemaLocation="http://sumo.dlr.de/xsd/det_e2_file.xsd">
</detector>
begin="0.00" end="100.80" id="e2Detector_-17_1_6" sampledSeconds="172.33" nVehEntered="8" nVehLeft="6" nVehSeen="8" meanSpeed="2.39" meanTimeLoss="17.83" meanOccupancy="15.17" maxOccupancy="36.30" meanMaxJamLengthInVehicles="1.14" meanMaxJamLengthInMeters="7.54" maxJamLengthInVehicles="4" maxJamLengthInMeters="28.68" jamLengthInVehiclesSum="128" jamLengthInMetersSum="844.83" meanHaltingDuration="17.36" maxHaltingDuration="39.60" haltingDurationSum="121.50" meanIntervalHaltingDuration="17.36" maxIntervalHaltingDuration="39.60" intervalHaltingDurationSum="121.50" startedHalts="7.00" meanVehicleNumber="1.76" maxVehicleNumber="4" />
   <interval begin="100.80" end="201.60" id="e2Detector_-17_1_6" sampledSeconds="37.30" nVehEntered="4" nVehLeft="6" nVehSeen="6" meanSpeed="5.99" meanTimeLoss="3.54" meanOccupancy="2.89" maxOccupancy="24.39" meanMaxJamLengthInVehicles="0.09" meanMaxJamLengthInMeters="0.29" maxJamLengthInVehicles="1" maxJamLengthInMeters="5.00" jamLengthInVehiclesSum="10" jamLengthInMetersSum="32.62" meanHaltingDuration="3.90" maxHaltingDuration="7.20" haltingDurationSum="11.70" meanIntervalHaltingDuration="3.90" maxIntervalHaltingDuration="7.20" intervalHaltingDurationSum="11.70" startedHalts="3.00" meanVehicleNumber="0.39" maxVehicleNumber="3" />
   <interval begin="201.60" end="302.40" id="e2Detector_-17_1_6" sampledSeconds="137.44" nVehEntered="8" nVehLeft="8" nVehSeen="8" meanSpeed="2.73" meanTimeLoss="13.80" meanOccupancy="11.89" maxOccupancy="46.30" meanMaxJamLengthInVehicles="0.72" meanMaxJamLengthInMeters="3.97" maxJamLengthInVehicles="5" maxJamLengthInMeters="35.01" jamLengthInVehiclesSum="81" jamLengthInMetersSum="444.12" meanHaltingDuration="18.23" maxHaltingDuration="37.80" haltingDurationSum="72.90" meanIntervalHaltingDuration="18.23" maxIntervalHaltingDuration="37.80" intervalHaltingDurationSum="72.90" startedHalts="6.00" meanVehicleNumber="1.41" maxVehicleNumber="5" />
   <interval begin="302.40" end="403.20" id="e2Detector_-17_1_6" sampledSeconds="94.10" nVehEntered="7" nVehLeft="7" nVehSeen="7" meanSpeed="4.07" meanTimeLoss="9.50" meanOccupancy="8.02" maxOccupancy="36.30" meanMaxJamLengthInVehicles="0.45" meanMaxJamLengthInMeters="2.61" maxJamLengthInVehicles="4" maxJamLengthInMeters="27.54" jamLengthInVehiclesSum="50" jamLengthInMetersSum="291.89" meanHaltingDuration="12.15" maxHaltingDuration="20.70" haltingDurationSum="48.60" meanIntervalHaltingDuration="12.15" maxIntervalHaltingDuration="20.70" intervalHaltingDurationSum="48.60" startedHalts="4.00" meanVehicleNumber="0.98" maxVehicleNumber="4" />
   <interval begin="403.20" end="450.00" id="e2Detector_-17_1_6" sampledSeconds="53.03" nVehEntered="4" nVehLeft="0" nVehSeen="4" meanSpeed="3.06" meanTimeLoss="10.34" meanOccupancy="10.54" maxOccupancy="36.30" meanMaxJamLengthInVehicles="0.65" meanMaxJamLengthInMeters="4.13" maxJamLengthInVehicles="3" maxJamLengthInMeters="20.03" jamLengthInVehiclesSum="34" jamLengthInMetersSum="214.57" meanHaltingDuration="8.55" maxHaltingDuration="13.50" haltingDurationSum="34.20" meanIntervalHaltingDuration="8.55" maxIntervalHaltingDuration="13.50" intervalHaltingDurationSum="34.20" startedHalts="4.00" meanVehicleNumber="1.17" maxVehicleNumber="4" />
</detector>
